ITEM: TIMESTEP
5000
ITEM: NUMBER OF ATOMS
1
ITEM: BOX BOUNDS pp pp pp
-1.2510269999999999e+00 1.4286026700000001e+01
-1.2510269999999999e+00 1.4286026700000001e+01
-1.2510269999999999e+00 1.4286026700000001e+01
ITEM: ATOMS xu yu zu fx fy fz
8.35781 11.1959 15.3496 0.23384 1.12997 -2.83109
ITEM: TIMESTEP
5005
ITEM: NUMBER OF ATOMS
1
ITEM: BOX BOUNDS pp pp pp
-1.2510269999999999e+00 1.4286026700000001e+01
-1.2510269999999999e+00 1.4286026700000001e+01
-1.2510269999999999e+00 1.4286026700000001e+01
ITEM: ATOMS xu yu zu fx fy fz
8.363 11.2482 15.2852 0.447299 0.358602 -1.90785
ITEM: TIMESTEP
5010
ITEM: NUMBER OF ATOMS
1
ITEM: BOX BOUNDS pp pp pp
-1.2510269999999999e+00 1.4286026700000001e+01
-1.2510269999999999e+00 1.4286026700000001e+01
-1.2510269999999999e+00 1.4286026700000001e+01
ITEM: ATOMS xu yu zu fx fy fz
8.37266 11.3047 15.2014 0.470921 0.249431 -0.539329
ITEM: TIMESTEP
5015
ITEM: NUMBER OF ATOMS
1
ITEM: BOX BOUNDS pp pp pp
-1.2510269999999999e+00 1.4286026700000001e+01
-1.2510269999999999e+00 1.4286026700000001e+01
-1.2510269999999999e+00 1.4286026700000001e+01
ITEM: ATOMS xu yu zu fx fy fz
8.38691 11.3641 15.1123 0.151922 0.508501 0.977377
ITEM: TIMESTEP
5020
ITEM: NUMBER OF ATOMS
1
ITEM: BOX BOUNDS pp pp pp
-1.2510269999999999e+00 1.4286026700000001e+01
-1.2510269999999999e+00 1.4286026700000001e+01
-1.2510269999999999e+00 1.4286026700000001e+01
ITEM: ATOMS xu yu zu fx fy fz
8.40255 11.4287 15.0329 -0.366951 0.67492 2.15198
ITEM: TIMESTEP
5025
ITEM: NUMBER OF ATOMS
1
ITEM: BOX BOUNDS pp pp pp
-1.2510269999999999e+00 1.4286026700000001e+01
-1.2510269999999999e+00 1.4286026700000001e+01
-1.2510269999999999e+00 1.4286026700000001e+01
ITEM: ATOMS xu yu zu fx fy fz
8.41453 11.5001 14.9754 -0.719072 0.521728 2.59686
ITEM: TIMESTEP
5030
ITEM: NUMBER OF ATOMS
1
ITEM: BOX BOUNDS pp pp pp
-1.2510269999999999e+00 1.4286026700000001e+01
-1.2510269999999999e+00 1.4286026700000001e+01
-1.2510269999999999e+00 1.4286026700000001e+01
ITEM: ATOMS xu yu zu fx fy fz
8.41935 11.5764 14.9441 -0.720414 -0.0347046 2.29432
ITEM: TIMESTEP
5035
ITEM: NUMBER OF ATOMS
1
ITEM: BOX BOUNDS pp pp pp
-1.2510269999999999e+00 1.4286026700000001e+01
-1.2510269999999999e+00 1.4286026700000001e+01
-1.2510269999999999e+00 1.4286026700000001e+01
ITEM: ATOMS xu yu zu fx fy fz
8.41681 11.6521 14.9363 -0.591739 -1.02445 1.56365
ITEM: TIMESTEP
5040
ITEM: NUMBER OF ATOMS
1
ITEM: BOX BOUNDS pp pp pp
-1.2510269999999999e+00 1.4286026700000001e+01
-1.2510269999999999e+00 1.4286026700000001e+01
-1.2510269999999999e+00 1.4286026700000001e+01
ITEM: ATOMS xu yu zu fx fy fz
8.40798 11.7171 14.9448 -0.610676 -2.16063 0.870581
ITEM: TIMESTEP
5045
ITEM: NUMBER OF ATOMS
1
ITEM: BOX BOUNDS pp pp pp
-1.2510269999999999e+00 1.4286026700000001e+01
-1.2510269999999999e+00 1.4286026700000001e+01
-1.2510269999999999e+00 1.4286026700000001e+01
ITEM: ATOMS xu yu zu fx fy fz
8.39277 11.76 14.9625 -0.66337 -2.84731 0.48646
ITEM: TIMESTEP
5050
ITEM: NUMBER OF ATOMS
1
ITEM: BOX BOUNDS pp pp pp
-1.2510269999999999e+00 1.4286026700000001e+01
-1.2510269999999999e+00 1.4286026700000001e+01
-1.2510269999999999e+00 1.4286026700000001e+01
ITEM: ATOMS xu yu zu fx fy fz
8.37089 11.7743 14.9856 -0.464775 -2.52416 0.387699
ITEM: TIMESTEP
5055
ITEM: NUMBER OF ATOMS
1
ITEM: BOX BOUNDS pp pp pp
-1.2510269999999999e+00 1.4286026700000001e+01
-1.2510269999999999e+00 1.4286026700000001e+01
-1.2510269999999999e+00 1.4286026700000001e+01
ITEM: ATOMS xu yu zu fx fy fz
8.34429 11.7633 15.0129 -0.134595 -1.04998 0.542862
ITEM: TIMESTEP
5060
ITEM: NUMBER OF ATOMS
1
ITEM: BOX BOUNDS pp pp pp
-1.2510269999999999e+00 1.4286026700000001e+01
-1.2510269999999999e+00 1.4286026700000001e+01
-1.2510269999999999e+00 1.4286026700000001e+01
ITEM: ATOMS xu yu zu fx fy fz
8.31599 11.742 15.0462 -0.11679 1.02836 1.10576
ITEM: TIMESTEP
5065
ITEM: NUMBER OF ATOMS
1
ITEM: BOX BOUNDS pp pp pp
-1.2510269999999999e+00 1.4286026700000001e+01
-1.2510269999999999e+00 1.4286026700000001e+01
-1.2510269999999999e+00 1.4286026700000001e+01
ITEM: ATOMS xu yu zu fx fy fz
8.28616 11.7309 15.0914 -0.384421 2.6938 2.01168
ITEM: TIMESTEP
5070
ITEM: NUMBER OF ATOMS
1
ITEM: BOX BOUNDS pp pp pp
-1.2510269999999999e+00 1.4286026700000001e+01
-1.2510269999999999e+00 1.4286026700000001e+01
-1.2510269999999999e+00 1.4286026700000001e+01
ITEM: ATOMS xu yu zu fx fy fz
8.25264 11.7469 15.1573 -0.285944 3.30466 2.61552
ITEM: TIMESTEP
5075
ITEM: NUMBER OF ATOMS
1
ITEM: BOX BOUNDS pp pp pp
-1.2510269999999999e+00 1.4286026700000001e+01
-1.2510269999999999e+00 1.4286026700000001e+01
-1.2510269999999999e+00 1.4286026700000001e+01
ITEM: ATOMS xu yu zu fx fy fz
8.2167 11.7963 15.2494 0.465962 2.80033 2.0854
ITEM: TIMESTEP
5080
ITEM: NUMBER OF ATOMS
1
ITEM: BOX BOUNDS pp pp pp
-1.2510269999999999e+00 1.4286026700000001e+01
-1.2510269999999999e+00 1.4286026700000001e+01
-1.2510269999999999e+00 1.4286026700000001e+01
ITEM: ATOMS xu yu zu fx fy fz
8.18548 11.874 15.3621 1.1213 1.21316 0.204591
ITEM: TIMESTEP
5085
ITEM: NUMBER OF ATOMS
1
ITEM: BOX BOUNDS pp pp pp
-1.2510269999999999e+00 1.4286026700000001e+01
-1.2510269999999999e+00 1.4286026700000001e+01
-1.2510269999999999e+00 1.4286026700000001e+01
ITEM: ATOMS xu yu zu fx fy fz
8.16488 11.9637 15.4767 0.663597 -1.0466 -2.13914
ITEM: TIMESTEP
5090
ITEM: NUMBER OF ATOMS
1
ITEM: BOX BOUNDS pp pp pp
-1.2510269999999999e+00 1.4286026700000001e+01
-1.2510269999999999e+00 1.4286026700000001e+01
-1.2510269999999999e+00 1.4286026700000001e+01
ITEM: ATOMS xu yu zu fx fy fz
8.15036 12.0431 15.5699 -0.67262 -2.92798 -3.82071
ITEM: TIMESTEP
5095
ITEM: NUMBER OF ATOMS
1
ITEM: BOX BOUNDS pp pp pp
-1.2510269999999999e+00 1.4286026700000001e+01
-1.2510269999999999e+00 1.4286026700000001e+01
-1.2510269999999999e+00 1.4286026700000001e+01
ITEM: ATOMS xu yu zu fx fy fz
8.12926 12.0932 15.6243 -1.51925 -3.56583 -4.62091
ITEM: TIMESTEP
5100
ITEM: NUMBER OF ATOMS
1
ITEM: BOX BOUNDS pp pp pp
-1.2510269999999999e+00 1.4286026700000001e+01
-1.2510269999999999e+00 1.4286026700000001e+01
-1.2510269999999999e+00 1.4286026700000001e+01
ITEM: ATOMS xu yu zu fx fy fz
8.09364 12.1076 15.6315 -0.909069 -2.71233 -4.40658
ITEM: TIMESTEP
5105
ITEM: NUMBER OF ATOMS
1
ITEM: BOX BOUNDS pp pp pp
-1.2510269999999999e+00 1.4286026700000001e+01
-1.2510269999999999e+00 1.4286026700000001e+01
-1.2510269999999999e+00 1.4286026700000001e+01
ITEM: ATOMS xu yu zu fx fy fz
8.04931 12.0949 15.5946 0.544986 -0.69441 -2.352
ITEM: TIMESTEP
5110
ITEM: NUMBER OF ATOMS
1
ITEM: BOX BOUNDS pp pp pp
-1.2510269999999999e+00 1.4286026700000001e+01
-1.2510269999999999e+00 1.4286026700000001e+01
-1.2510269999999999e+00 1.4286026700000001e+01
ITEM: ATOMS xu yu zu fx fy fz
8.0097 12.0752 15.5348 1.04527 1.58203 1.39464
ITEM: TIMESTEP
5115
ITEM: NUMBER OF ATOMS
1
ITEM: BOX BOUNDS pp pp pp
-1.2510269999999999e+00 1.4286026700000001e+01
-1.2510269999999999e+00 1.4286026700000001e+01
-1.2510269999999999e+00 1.4286026700000001e+01
ITEM: ATOMS xu yu zu fx fy fz
7.97973 12.0712 15.4886 0.298565 3.17075 4.26517
ITEM: TIMESTEP
5120
ITEM: NUMBER OF ATOMS
1
ITEM: BOX BOUNDS pp pp pp
-1.2510269999999999e+00 1.4286026700000001e+01
-1.2510269999999999e+00 1.4286026700000001e+01
-1.2510269999999999e+00 1.4286026700000001e+01
ITEM: ATOMS xu yu zu fx fy fz
7.95338 12.0993 15.4838 0.130434 3.58075 3.89593
ITEM: TIMESTEP
5125
ITEM: NUMBER OF ATOMS
1
ITEM: BOX BOUNDS pp pp pp
-1.2510269999999999e+00 1.4286026700000001e+01
-1.2510269999999999e+00 1.4286026700000001e+01
-1.2510269999999999e+00 1.4286026700000001e+01
ITEM: ATOMS xu yu zu fx fy fz
7.9292 12.1628 15.5168 0.831495 1.90901 0.569734
ITEM: TIMESTEP
5130
ITEM: NUMBER OF ATOMS
1
ITEM: BOX BOUNDS pp pp pp
-1.2510269999999999e+00 1.4286026700000001e+01
-1.2510269999999999e+00 1.4286026700000001e+01
-1.2510269999999999e+00 1.4286026700000001e+01
ITEM: ATOMS xu yu zu fx fy fz
7.9127 12.2444 15.5558 0.576137 -1.82048 -2.91827
ITEM: TIMESTEP
5135
ITEM: NUMBER OF ATOMS
1
ITEM: BOX BOUNDS pp pp pp
-1.2510269999999999e+00 1.4286026700000001e+01
-1.2510269999999999e+00 1.4286026700000001e+01
-1.2510269999999999e+00 1.4286026700000001e+01
ITEM: ATOMS xu yu zu fx fy fz
7.90133 12.3076 15.5664 -0.522349 -5.13636 -4.31438
ITEM: TIMESTEP
5140
ITEM: NUMBER OF ATOMS
1
ITEM: BOX BOUNDS pp pp pp
-1.2510269999999999e+00 1.4286026700000001e+01
-1.2510269999999999e+00 1.4286026700000001e+01
-1.2510269999999999e+00 1.4286026700000001e+01
ITEM: ATOMS xu yu zu fx fy fz
7.88575 12.3198 15.5336 -0.263923 -5.96217 -4.02479
ITEM: TIMESTEP
5145
ITEM: NUMBER OF ATOMS
1
ITEM: BOX BOUNDS pp pp pp
-1.2510269999999999e+00 1.4286026700000001e+01
-1.2510269999999999e+00 1.4286026700000001e+01
-1.2510269999999999e+00 1.4286026700000001e+01
ITEM: ATOMS xu yu zu fx fy fz
7.86881 12.2728 15.4603 1.44877 -3.49462 -1.86636
ITEM: TIMESTEP
5150
ITEM: NUMBER OF ATOMS
1
ITEM: BOX BOUNDS pp pp pp
-1.2510269999999999e+00 1.4286026700000001e+01
-1.2510269999999999e+00 1.4286026700000001e+01
-1.2510269999999999e+00 1.4286026700000001e+01
ITEM: ATOMS xu yu zu fx fy fz
7.86502 12.1916 15.3699 1.05953 1.39966 2.80072
ITEM: TIMESTEP
5155
ITEM: NUMBER OF ATOMS
1
ITEM: BOX BOUNDS pp pp pp
-1.2510269999999999e+00 1.4286026700000001e+01
-1.2510269999999999e+00 1.4286026700000001e+01
-1.2510269999999999e+00 1.4286026700000001e+01
ITEM: ATOMS xu yu zu fx fy fz
7.86944 12.1232 15.3081 -2.2024 4.64721 7.32591
ITEM: TIMESTEP
5160
ITEM: NUMBER OF ATOMS
1
ITEM: BOX BOUNDS pp pp pp
-1.2510269999999999e+00 1.4286026700000001e+01
-1.2510269999999999e+00 1.4286026700000001e+01
-1.2510269999999999e+00 1.4286026700000001e+01
ITEM: ATOMS xu yu zu fx fy fz
7.85347 12.0999 15.3198 -2.76183 4.36926 8.86691
ITEM: TIMESTEP
5165
ITEM: NUMBER OF ATOMS
1
ITEM: BOX BOUNDS pp pp pp
-1.2510269999999999e+00 1.4286026700000001e+01
-1.2510269999999999e+00 1.4286026700000001e+01
-1.2510269999999999e+00 1.4286026700000001e+01
ITEM: ATOMS xu yu zu fx fy fz
7.81287 12.1201 15.4196 1.07446 1.84161 5.50921
ITEM: TIMESTEP
5170
ITEM: NUMBER OF ATOMS
1
ITEM: BOX BOUNDS pp pp pp
-1.2510269999999999e+00 1.4286026700000001e+01
-1.2510269999999999e+00 1.4286026700000001e+01
-1.2510269999999999e+00 1.4286026700000001e+01
ITEM: ATOMS xu yu zu fx fy fz
7.78161 12.1583 15.573 3.12851 -1.907 -1.89568
ITEM: TIMESTEP
5175
ITEM: NUMBER OF ATOMS
1
ITEM: BOX BOUNDS pp pp pp
-1.2510269999999999e+00 1.4286026700000001e+01
-1.2510269999999999e+00 1.4286026700000001e+01
-1.2510269999999999e+00 1.4286026700000001e+01
ITEM: ATOMS xu yu zu fx fy fz
7.77894 12.1779 15.7094 1.03833 -4.51082 -6.93962
ITEM: TIMESTEP
5180
ITEM: NUMBER OF ATOMS
1
ITEM: BOX BOUNDS pp pp pp
-1.2510269999999999e+00 1.4286026700000001e+01
-1.2510269999999999e+00 1.4286026700000001e+01
-1.2510269999999999e+00 1.4286026700000001e+01
ITEM: ATOMS xu yu zu fx fy fz
7.78764 12.1529 15.7772 -0.613547 -4.42727 -8.3186
ITEM: TIMESTEP
5185
ITEM: NUMBER OF ATOMS
1
ITEM: BOX BOUNDS pp pp pp
-1.2510269999999999e+00 1.4286026700000001e+01
-1.2510269999999999e+00 1.4286026700000001e+01
-1.2510269999999999e+00 1.4286026700000001e+01
ITEM: ATOMS xu yu zu fx fy fz
7.792 12.0842 15.7603 -0.0154884 -1.59234 -7.50982
ITEM: TIMESTEP
5190
ITEM: NUMBER OF ATOMS
1
ITEM: BOX BOUNDS pp pp pp
-1.2510269999999999e+00 1.4286026700000001e+01
-1.2510269999999999e+00 1.4286026700000001e+01
-1.2510269999999999e+00 1.4286026700000001e+01
ITEM: ATOMS xu yu zu fx fy fz
7.7966 11.9999 15.6681 1.02416 2.31373 -3.57892
ITEM: TIMESTEP
5195
ITEM: NUMBER OF ATOMS
1
ITEM: BOX BOUNDS pp pp pp
-1.2510269999999999e+00 1.4286026700000001e+01
-1.2510269999999999e+00 1.4286026700000001e+01
-1.2510269999999999e+00 1.4286026700000001e+01
ITEM: ATOMS xu yu zu fx fy fz
7.81015 11.9373 15.5405 0.243972 3.87109 2.35434
ITEM: TIMESTEP
5200
ITEM: NUMBER OF ATOMS
1
ITEM: BOX BOUNDS pp pp pp
-1.2510269999999999e+00 1.4286026700000001e+01
-1.2510269999999999e+00 1.4286026700000001e+01
-1.2510269999999999e+00 1.4286026700000001e+01
ITEM: ATOMS xu yu zu fx fy fz
7.8253 11.9124 15.4351 -1.60589 2.65775 6.08558
ITEM: TIMESTEP
5205
ITEM: NUMBER OF ATOMS
1
ITEM: BOX BOUNDS pp pp pp
-1.2510269999999999e+00 1.4286026700000001e+01
-1.2510269999999999e+00 1.4286026700000001e+01
-1.2510269999999999e+00 1.4286026700000001e+01
ITEM: ATOMS xu yu zu fx fy fz
7.82478 11.9154 15.3899 -2.3834 1.59102 6.3627
ITEM: TIMESTEP
5210
ITEM: NUMBER OF ATOMS
1
ITEM: BOX BOUNDS pp pp pp
-1.2510269999999999e+00 1.4286026700000001e+01
-1.2510269999999999e+00 1.4286026700000001e+01
-1.2510269999999999e+00 1.4286026700000001e+01
ITEM: ATOMS xu yu zu fx fy fz
7.80094 11.936 15.4087 -1.51461 1.73589 4.21631
ITEM: TIMESTEP
5215
ITEM: NUMBER OF ATOMS
1
ITEM: BOX BOUNDS pp pp pp
-1.2510269999999999e+00 1.4286026700000001e+01
-1.2510269999999999e+00 1.4286026700000001e+01
-1.2510269999999999e+00 1.4286026700000001e+01
ITEM: ATOMS xu yu zu fx fy fz
7.76204 11.9742 15.4698 0.143756 1.39851 0.390366
ITEM: TIMESTEP
5220
ITEM: NUMBER OF ATOMS
1
ITEM: BOX BOUNDS pp pp pp
-1.2510269999999999e+00 1.4286026700000001e+01
-1.2510269999999999e+00 1.4286026700000001e+01
-1.2510269999999999e+00 1.4286026700000001e+01
ITEM: ATOMS xu yu zu fx fy fz
7.72396 12.0251 15.5351 1.11005 -0.962765 -3.33695
ITEM: TIMESTEP
5225
ITEM: NUMBER OF ATOMS
1
ITEM: BOX BOUNDS pp pp pp
-1.2510269999999999e+00 1.4286026700000001e+01
-1.2510269999999999e+00 1.4286026700000001e+01
-1.2510269999999999e+00 1.4286026700000001e+01
ITEM: ATOMS xu yu zu fx fy fz
7.69645 12.0653 15.5678 1.07455 -4.24637 -4.85512
ITEM: TIMESTEP
5230
ITEM: NUMBER OF ATOMS
1
ITEM: BOX BOUNDS pp pp pp
-1.2510269999999999e+00 1.4286026700000001e+01
-1.2510269999999999e+00 1.4286026700000001e+01
-1.2510269999999999e+00 1.4286026700000001e+01
ITEM: ATOMS xu yu zu fx fy fz
7.68025 12.0628 15.5521 1.22256 -6.04613 -3.97215
ITEM: TIMESTEP
5235
ITEM: NUMBER OF ATOMS
1
ITEM: BOX BOUNDS pp pp pp
-1.2510269999999999e+00 1.4286026700000001e+01
-1.2510269999999999e+00 1.4286026700000001e+01
-1.2510269999999999e+00 1.4286026700000001e+01
ITEM: ATOMS xu yu zu fx fy fz
7.67731 12.0001 15.4965 1.92132 -4.74682 -1.43636
ITEM: TIMESTEP
5240
ITEM: NUMBER OF ATOMS
1
ITEM: BOX BOUNDS pp pp pp
-1.2510269999999999e+00 1.4286026700000001e+01
-1.2510269999999999e+00 1.4286026700000001e+01
-1.2510269999999999e+00 1.4286026700000001e+01
ITEM: ATOMS xu yu zu fx fy fz
7.69308 11.8905 15.4268 1.17387 -0.54367 2.03827
ITEM: TIMESTEP
5245
ITEM: NUMBER OF ATOMS
1
ITEM: BOX BOUNDS pp pp pp
-1.2510269999999999e+00 1.4286026700000001e+01
-1.2510269999999999e+00 1.4286026700000001e+01
-1.2510269999999999e+00 1.4286026700000001e+01
ITEM: ATOMS xu yu zu fx fy fz
7.71881 11.7751 15.3774 -1.96578 3.57818 4.65306
ITEM: TIMESTEP
5250
ITEM: NUMBER OF ATOMS
1
ITEM: BOX BOUNDS pp pp pp
-1.2510269999999999e+00 1.4286026700000001e+01
-1.2510269999999999e+00 1.4286026700000001e+01
-1.2510269999999999e+00 1.4286026700000001e+01
ITEM: ATOMS xu yu zu fx fy fz
7.72507 11.6944 15.3744 -4.07458 5.20072 5.20533
ITEM: TIMESTEP
5255
ITEM: NUMBER OF ATOMS
1
ITEM: BOX BOUNDS pp pp pp
-1.2510269999999999e+00 1.4286026700000001e+01
-1.2510269999999999e+00 1.4286026700000001e+01
-1.2510269999999999e+00 1.4286026700000001e+01
ITEM: ATOMS xu yu zu fx fy fz
7.69249 11.6654 15.4239 -2.31311 4.13431 3.74294
ITEM: TIMESTEP
5260
ITEM: NUMBER OF ATOMS
1
ITEM: BOX BOUNDS pp pp pp
-1.2510269999999999e+00 1.4286026700000001e+01
-1.2510269999999999e+00 1.4286026700000001e+01
-1.2510269999999999e+00 1.4286026700000001e+01
ITEM: ATOMS xu yu zu fx fy fz
7.63749 11.6767 15.5104 1.2489 -0.0321567 0.289691
ITEM: TIMESTEP
5265
ITEM: NUMBER OF ATOMS
1
ITEM: BOX BOUNDS pp pp pp
-1.2510269999999999e+00 1.4286026700000001e+01
-1.2510269999999999e+00 1.4286026700000001e+01
-1.2510269999999999e+00 1.4286026700000001e+01
ITEM: ATOMS xu yu zu fx fy fz
7.59327 11.6871 15.6004 2.63981 -4.65019 -2.83228
ITEM: TIMESTEP
5270
ITEM: NUMBER OF ATOMS
1
ITEM: BOX BOUNDS pp pp pp
-1.2510269999999999e+00 1.4286026700000001e+01
-1.2510269999999999e+00 1.4286026700000001e+01
-1.2510269999999999e+00 1.4286026700000001e+01
ITEM: ATOMS xu yu zu fx fy fz
7.57528 11.6524 15.6631 2.6573 -5.76919 -3.61903
ITEM: TIMESTEP
5275
ITEM: NUMBER OF ATOMS
1
ITEM: BOX BOUNDS pp pp pp
-1.2510269999999999e+00 1.4286026700000001e+01
-1.2510269999999999e+00 1.4286026700000001e+01
-1.2510269999999999e+00 1.4286026700000001e+01
ITEM: ATOMS xu yu zu fx fy fz
7.58501 11.5611 15.6895 2.66734 -2.90496 -2.92658
ITEM: TIMESTEP
5280
ITEM: NUMBER OF ATOMS
1
ITEM: BOX BOUNDS pp pp pp
-1.2510269999999999e+00 1.4286026700000001e+01
-1.2510269999999999e+00 1.4286026700000001e+01
-1.2510269999999999e+00 1.4286026700000001e+01
ITEM: ATOMS xu yu zu fx fy fz
7.62123 11.4413 15.686 1.3468 1.99148 -1.69747
ITEM: TIMESTEP
5285
ITEM: NUMBER OF ATOMS
1
ITEM: BOX BOUNDS pp pp pp
-1.2510269999999999e+00 1.4286026700000001e+01
-1.2510269999999999e+00 1.4286026700000001e+01
-1.2510269999999999e+00 1.4286026700000001e+01
ITEM: ATOMS xu yu zu fx fy fz
7.67026 11.3411 15.665 -1.26338 5.74072 -0.377715
ITEM: TIMESTEP
5290
ITEM: NUMBER OF ATOMS
1
ITEM: BOX BOUNDS pp pp pp
-1.2510269999999999e+00 1.4286026700000001e+01
-1.2510269999999999e+00 1.4286026700000001e+01
-1.2510269999999999e+00 1.4286026700000001e+01
ITEM: ATOMS xu yu zu fx fy fz
7.70737 11.298 15.6398 -2.60416 6.83469 0.807671
ITEM: TIMESTEP
5295
ITEM: NUMBER OF ATOMS
1
ITEM: BOX BOUNDS pp pp pp
-1.2510269999999999e+00 1.4286026700000001e+01
-1.2510269999999999e+00 1.4286026700000001e+01
-1.2510269999999999e+00 1.4286026700000001e+01
ITEM: ATOMS xu yu zu fx fy fz
7.71963 11.3238 15.623 -1.54361 5.49615 1.98157
ITEM: TIMESTEP
5300
ITEM: NUMBER OF ATOMS
1
ITEM: BOX BOUNDS pp pp pp
-1.2510269999999999e+00 1.4286026700000001e+01
-1.2510269999999999e+00 1.4286026700000001e+01
-1.2510269999999999e+00 1.4286026700000001e+01
ITEM: ATOMS xu yu zu fx fy fz
7.71652 11.4049 15.6265 0.274113 1.9717 2.73099
ITEM: TIMESTEP
5305
ITEM: NUMBER OF ATOMS
1
ITEM: BOX BOUNDS pp pp pp
-1.2510269999999999e+00 1.4286026700000001e+01
-1.2510269999999999e+00 1.4286026700000001e+01
-1.2510269999999999e+00 1.4286026700000001e+01
ITEM: ATOMS xu yu zu fx fy fz
7.71509 11.506 15.6571 0.832387 -2.25949 2.07112
ITEM: TIMESTEP
5310
ITEM: NUMBER OF ATOMS
1
ITEM: BOX BOUNDS pp pp pp
-1.2510269999999999e+00 1.4286026700000001e+01
-1.2510269999999999e+00 1.4286026700000001e+01
-1.2510269999999999e+00 1.4286026700000001e+01
ITEM: ATOMS xu yu zu fx fy fz
7.72124 11.585 15.708 0.18798 -5.11674 0.00515079
ITEM: TIMESTEP
5315
ITEM: NUMBER OF ATOMS
1
ITEM: BOX BOUNDS pp pp pp
-1.2510269999999999e+00 1.4286026700000001e+01
-1.2510269999999999e+00 1.4286026700000001e+01
-1.2510269999999999e+00 1.4286026700000001e+01
ITEM: ATOMS xu yu zu fx fy fz
7.72952 11.6128 15.7591 -0.32984 -5.95619 -2.10021
ITEM: TIMESTEP
5320
ITEM: NUMBER OF ATOMS
1
ITEM: BOX BOUNDS pp pp pp
-1.2510269999999999e+00 1.4286026700000001e+01
-1.2510269999999999e+00 1.4286026700000001e+01
-1.2510269999999999e+00 1.4286026700000001e+01
ITEM: ATOMS xu yu zu fx fy fz
7.73521 11.58 15.7897 0.0674395 -5.21409 -2.77684
ITEM: TIMESTEP
5325
ITEM: NUMBER OF ATOMS
1
ITEM: BOX BOUNDS pp pp pp
-1.2510269999999999e+00 1.4286026700000001e+01
-1.2510269999999999e+00 1.4286026700000001e+01
-1.2510269999999999e+00 1.4286026700000001e+01
ITEM: ATOMS xu yu zu fx fy fz
7.742 11.4941 15.7932 0.881947 -3.2296 -1.53294
ITEM: TIMESTEP
5330
ITEM: NUMBER OF ATOMS
1
ITEM: BOX BOUNDS pp pp pp
-1.2510269999999999e+00 1.4286026700000001e+01
-1.2510269999999999e+00 1.4286026700000001e+01
-1.2510269999999999e+00 1.4286026700000001e+01
ITEM: ATOMS xu yu zu fx fy fz
7.75721 11.3751 15.7816 0.831784 -0.299348 0.640727
ITEM: TIMESTEP
5335
ITEM: NUMBER OF ATOMS
1
ITEM: BOX BOUNDS pp pp pp
-1.2510269999999999e+00 1.4286026700000001e+01
-1.2510269999999999e+00 1.4286026700000001e+01
-1.2510269999999999e+00 1.4286026700000001e+01
ITEM: ATOMS xu yu zu fx fy fz
7.78002 11.2527 15.7757 -0.434281 2.59926 1.86064
ITEM: TIMESTEP
5340
ITEM: NUMBER OF ATOMS
1
ITEM: BOX BOUNDS pp pp pp
-1.2510269999999999e+00 1.4286026700000001e+01
-1.2510269999999999e+00 1.4286026700000001e+01
-1.2510269999999999e+00 1.4286026700000001e+01
ITEM: ATOMS xu yu zu fx fy fz
7.79837 11.1559 15.7876 -1.71155 4.30159 1.24771
ITEM: TIMESTEP
5345
ITEM: NUMBER OF ATOMS
1
ITEM: BOX BOUNDS pp pp pp
-1.2510269999999999e+00 1.4286026700000001e+01
-1.2510269999999999e+00 1.4286026700000001e+01
-1.2510269999999999e+00 1.4286026700000001e+01
ITEM: ATOMS xu yu zu fx fy fz
7.79997 11.1021 15.8117 -1.89928 4.37298 -0.229684
ITEM: TIMESTEP
5350
ITEM: NUMBER OF ATOMS
1
ITEM: BOX BOUNDS pp pp pp
-1.2510269999999999e+00 1.4286026700000001e+01
-1.2510269999999999e+00 1.4286026700000001e+01
-1.2510269999999999e+00 1.4286026700000001e+01
ITEM: ATOMS xu yu zu fx fy fz
7.78262 11.0926 15.8341 -1.18534 3.23535 -1.05703
ITEM: TIMESTEP
5355
ITEM: NUMBER OF ATOMS
1
ITEM: BOX BOUNDS pp pp pp
-1.2510269999999999e+00 1.4286026700000001e+01
-1.2510269999999999e+00 1.4286026700000001e+01
-1.2510269999999999e+00 1.4286026700000001e+01
ITEM: ATOMS xu yu zu fx fy fz
7.75289 11.1165 15.8466 -0.451092 1.7611 -0.736449
ITEM: TIMESTEP
5360
ITEM: NUMBER OF ATOMS
1
ITEM: BOX BOUNDS pp pp pp
-1.2510269999999999e+00 1.4286026700000001e+01
-1.2510269999999999e+00 1.4286026700000001e+01
-1.2510269999999999e+00 1.4286026700000001e+01
ITEM: ATOMS xu yu zu fx fy fz
7.71798 11.159 15.8519 -0.156213 0.683156 0.104117
ITEM: TIMESTEP
5365
ITEM: NUMBER OF ATOMS
1
ITEM: BOX BOUNDS pp pp pp
-1.2510269999999999e+00 1.4286026700000001e+01
-1.2510269999999999e+00 1.4286026700000001e+01
-1.2510269999999999e+00 1.4286026700000001e+01
ITEM: ATOMS xu yu zu fx fy fz
7.68113 11.2094 15.8581 -0.1156 0.256143 0.746512
ITEM: TIMESTEP
5370
ITEM: NUMBER OF ATOMS
1
ITEM: BOX BOUNDS pp pp pp
-1.2510269999999999e+00 1.4286026700000001e+01
-1.2510269999999999e+00 1.4286026700000001e+01
-1.2510269999999999e+00 1.4286026700000001e+01
ITEM: ATOMS xu yu zu fx fy fz
7.64302 11.2629 15.8718 -0.0102478 0.213954 1.0172
ITEM: TIMESTEP
5375
ITEM: NUMBER OF ATOMS
1
ITEM: BOX BOUNDS pp pp pp
-1.2510269999999999e+00 1.4286026700000001e+01
-1.2510269999999999e+00 1.4286026700000001e+01
-1.2510269999999999e+00 1.4286026700000001e+01
ITEM: ATOMS xu yu zu fx fy fz
7.60487 11.3187 15.8957 0.302343 0.0350871 0.90022
ITEM: TIMESTEP
5380
ITEM: NUMBER OF ATOMS
1
ITEM: BOX BOUNDS pp pp pp
-1.2510269999999999e+00 1.4286026700000001e+01
-1.2510269999999999e+00 1.4286026700000001e+01
-1.2510269999999999e+00 1.4286026700000001e+01
ITEM: ATOMS xu yu zu fx fy fz
7.56986 11.3747 15.9287 0.756584 -0.520079 0.201865
ITEM: TIMESTEP
5385
ITEM: NUMBER OF ATOMS
1
ITEM: BOX BOUNDS pp pp pp
-1.2510269999999999e+00 1.4286026700000001e+01
-1.2510269999999999e+00 1.4286026700000001e+01
-1.2510269999999999e+00 1.4286026700000001e+01
ITEM: ATOMS xu yu zu fx fy fz
7.54253 11.4252 15.9633 1.12438 -1.2914 -0.986394
ITEM: TIMESTEP
5390
ITEM: NUMBER OF ATOMS
1
ITEM: BOX BOUNDS pp pp pp
-1.2510269999999999e+00 1.4286026700000001e+01
-1.2510269999999999e+00 1.4286026700000001e+01
-1.2510269999999999e+00 1.4286026700000001e+01
ITEM: ATOMS xu yu zu fx fy fz
7.52655 11.4625 15.988 1.21605 -2.16422 -2.0111
ITEM: TIMESTEP
5395
ITEM: NUMBER OF ATOMS
1
ITEM: BOX BOUNDS pp pp pp
-1.2510269999999999e+00 1.4286026700000001e+01
-1.2510269999999999e+00 1.4286026700000001e+01
-1.2510269999999999e+00 1.4286026700000001e+01
ITEM: ATOMS xu yu zu fx fy fz
7.5229 11.4773 15.9927 0.999307 -3.07938 -2.0953
ITEM: TIMESTEP
5400
ITEM: NUMBER OF ATOMS
1
ITEM: BOX BOUNDS pp pp pp
-1.2510269999999999e+00 1.4286026700000001e+01
-1.2510269999999999e+00 1.4286026700000001e+01
-1.2510269999999999e+00 1.4286026700000001e+01
ITEM: ATOMS xu yu zu fx fy fz
7.52946 11.4607 15.9767 0.589475 -3.35552 -0.877239
ITEM: TIMESTEP
5405
ITEM: NUMBER OF ATOMS
1
ITEM: BOX BOUNDS pp pp pp
-1.2510269999999999e+00 1.4286026700000001e+01
-1.2510269999999999e+00 1.4286026700000001e+01
-1.2510269999999999e+00 1.4286026700000001e+01
ITEM: ATOMS xu yu zu fx fy fz
7.54218 11.4107 15.9521 0.184301 -1.83152 0.934414
ITEM: TIMESTEP
5410
ITEM: NUMBER OF ATOMS
1
ITEM: BOX BOUNDS pp pp pp
-1.2510269999999999e+00 1.4286026700000001e+01
-1.2510269999999999e+00 1.4286026700000001e+01
-1.2510269999999999e+00 1.4286026700000001e+01
ITEM: ATOMS xu yu zu fx fy fz
7.55686 11.3429 15.9364 -0.204266 1.18021 1.85847
ITEM: TIMESTEP
5415
ITEM: NUMBER OF ATOMS
1
ITEM: BOX BOUNDS pp pp pp
-1.2510269999999999e+00 1.4286026700000001e+01
-1.2510269999999999e+00 1.4286026700000001e+01
-1.2510269999999999e+00 1.4286026700000001e+01
ITEM: ATOMS xu yu zu fx fy fz
7.5696 11.2865 15.9387 -0.417574 3.58808 1.41987
ITEM: TIMESTEP
5420
ITEM: NUMBER OF ATOMS
1
ITEM: BOX BOUNDS pp pp pp
-1.2510269999999999e+00 1.4286026700000001e+01
-1.2510269999999999e+00 1.4286026700000001e+01
-1.2510269999999999e+00 1.4286026700000001e+01
ITEM: ATOMS xu yu zu fx fy fz
7.5785 11.2656 15.9554 -0.104759 4.0737 0.473258
ITEM: TIMESTEP
5425
ITEM: NUMBER OF ATOMS
1
ITEM: BOX BOUNDS pp pp pp
-1.2510269999999999e+00 1.4286026700000001e+01
-1.2510269999999999e+00 1.4286026700000001e+01
-1.2510269999999999e+00 1.4286026700000001e+01
ITEM: ATOMS xu yu zu fx fy fz
7.58666 11.2854 15.9772 0.568505 2.71066 -0.302339
ITEM: TIMESTEP
5430
ITEM: NUMBER OF ATOMS
1
ITEM: BOX BOUNDS pp pp pp
-1.2510269999999999e+00 1.4286026700000001e+01
-1.2510269999999999e+00 1.4286026700000001e+01
-1.2510269999999999e+00 1.4286026700000001e+01
ITEM: ATOMS xu yu zu fx fy fz
7.60047 11.3325 15.996 0.92288 0.247251 -0.93602
ITEM: TIMESTEP
5435
ITEM: NUMBER OF ATOMS
1
ITEM: BOX BOUNDS pp pp pp
-1.2510269999999999e+00 1.4286026700000001e+01
-1.2510269999999999e+00 1.4286026700000001e+01
-1.2510269999999999e+00 1.4286026700000001e+01
ITEM: ATOMS xu yu zu fx fy fz
7.62332 11.3824 16.0051 0.642716 -1.99935 -1.62465
ITEM: TIMESTEP
5440
ITEM: NUMBER OF ATOMS
1
ITEM: BOX BOUNDS pp pp pp
-1.2510269999999999e+00 1.4286026700000001e+01
-1.2510269999999999e+00 1.4286026700000001e+01
-1.2510269999999999e+00 1.4286026700000001e+01
ITEM: ATOMS xu yu zu fx fy fz
7.65281 11.413 15.9975 0.255023 -2.72131 -2.10431
ITEM: TIMESTEP
5445
ITEM: NUMBER OF ATOMS
1
ITEM: BOX BOUNDS pp pp pp
-1.2510269999999999e+00 1.4286026700000001e+01
-1.2510269999999999e+00 1.4286026700000001e+01
-1.2510269999999999e+00 1.4286026700000001e+01
ITEM: ATOMS xu yu zu fx fy fz
7.68529 11.4169 15.9688 0.141675 -1.63718 -1.58534
ITEM: TIMESTEP
5450
ITEM: NUMBER OF ATOMS
1
ITEM: BOX BOUNDS pp pp pp
-1.2510269999999999e+00 1.4286026700000001e+01
-1.2510269999999999e+00 1.4286026700000001e+01
-1.2510269999999999e+00 1.4286026700000001e+01
ITEM: ATOMS xu yu zu fx fy fz
7.71914 11.4045 15.9247 -0.163534 0.213581 0.144707
ITEM: TIMESTEP
5455
ITEM: NUMBER OF ATOMS
1
ITEM: BOX BOUNDS pp pp pp
-1.2510269999999999e+00 1.4286026700000001e+01
-1.2510269999999999e+00 1.4286026700000001e+01
-1.2510269999999999e+00 1.4286026700000001e+01
ITEM: ATOMS xu yu zu fx fy fz
7.75101 11.3937 15.8821 -0.826521 1.42783 1.94228
ITEM: TIMESTEP
5460
ITEM: NUMBER OF ATOMS
1
ITEM: BOX BOUNDS pp pp pp
-1.2510269999999999e+00 1.4286026700000001e+01
-1.2510269999999999e+00 1.4286026700000001e+01
-1.2510269999999999e+00 1.4286026700000001e+01
ITEM: ATOMS xu yu zu fx fy fz
7.77463 11.3968 15.8586 -1.19719 1.49602 2.68154
ITEM: TIMESTEP
5465
ITEM: NUMBER OF ATOMS
1
ITEM: BOX BOUNDS pp pp pp
-1.2510269999999999e+00 1.4286026700000001e+01
-1.2510269999999999e+00 1.4286026700000001e+01
-1.2510269999999999e+00 1.4286026700000001e+01
ITEM: ATOMS xu yu zu fx fy fz
7.78639 11.4146 15.8619 -0.969561 0.630401 2.27183
ITEM: TIMESTEP
5470
ITEM: NUMBER OF ATOMS
1
ITEM: BOX BOUNDS pp pp pp
-1.2510269999999999e+00 1.4286026700000001e+01
-1.2510269999999999e+00 1.4286026700000001e+01
-1.2510269999999999e+00 1.4286026700000001e+01
ITEM: ATOMS xu yu zu fx fy fz
7.78825 11.4384 15.8883 -0.567743 -0.841859 1.20886
ITEM: TIMESTEP
5475
ITEM: NUMBER OF ATOMS
1
ITEM: BOX BOUNDS pp pp pp
-1.2510269999999999e+00 1.4286026700000001e+01
-1.2510269999999999e+00 1.4286026700000001e+01
-1.2510269999999999e+00 1.4286026700000001e+01
ITEM: ATOMS xu yu zu fx fy fz
7.78397 11.4535 15.9273 -0.420217 -2.36578 0.139524
ITEM: TIMESTEP
5480
ITEM: NUMBER OF ATOMS
1
ITEM: BOX BOUNDS pp pp pp
-1.2510269999999999e+00 1.4286026700000001e+01
-1.2510269999999999e+00 1.4286026700000001e+01
-1.2510269999999999e+00 1.4286026700000001e+01
ITEM: ATOMS xu yu zu fx fy fz
7.7752 11.4446 15.9682 -0.400539 -3.28464 -0.543224
ITEM: TIMESTEP
5485
ITEM: NUMBER OF ATOMS
1
ITEM: BOX BOUNDS pp pp pp
-1.2510269999999999e+00 1.4286026700000001e+01
-1.2510269999999999e+00 1.4286026700000001e+01
-1.2510269999999999e+00 1.4286026700000001e+01
ITEM: ATOMS xu yu zu fx fy fz
7.76247 11.4024 16.0037 -0.142528 -3.25302 -0.939506
ITEM: TIMESTEP
5490
ITEM: NUMBER OF ATOMS
1
ITEM: BOX BOUNDS pp pp pp
-1.2510269999999999e+00 1.4286026700000001e+01
-1.2510269999999999e+00 1.4286026700000001e+01
-1.2510269999999999e+00 1.4286026700000001e+01
ITEM: ATOMS xu yu zu fx fy fz
7.74849 11.3273 16.0296 0.393783 -2.04969 -1.2902
ITEM: TIMESTEP
5495
ITEM: NUMBER OF ATOMS
1
ITEM: BOX BOUNDS pp pp pp
-1.2510269999999999e+00 1.4286026700000001e+01
-1.2510269999999999e+00 1.4286026700000001e+01
-1.2510269999999999e+00 1.4286026700000001e+01
ITEM: ATOMS xu yu zu fx fy fz
7.73841 11.2319 16.0422 0.709738 0.5071 -1.48783
ITEM: TIMESTEP
5500
ITEM: NUMBER OF ATOMS
1
ITEM: BOX BOUNDS pp pp pp
-1.2510269999999999e+00 1.4286026700000001e+01
-1.2510269999999999e+00 1.4286026700000001e+01
-1.2510269999999999e+00 1.4286026700000001e+01
ITEM: ATOMS xu yu zu fx fy fz
7.73494 11.1422 16.04 0.221254 3.6599 -1.01641
ITEM: TIMESTEP
5505
ITEM: NUMBER OF ATOMS
1
ITEM: BOX BOUNDS pp pp pp
-1.2510269999999999e+00 1.4286026700000001e+01
-1.2510269999999999e+00 1.4286026700000001e+01
-1.2510269999999999e+00 1.4286026700000001e+01
ITEM: ATOMS xu yu zu fx fy fz
7.73349 11.0896 16.0278 -0.542002 5.87203 0.0921016
ITEM: TIMESTEP
5510
ITEM: NUMBER OF ATOMS
1
ITEM: BOX BOUNDS pp pp pp
-1.2510269999999999e+00 1.4286026700000001e+01
-1.2510269999999999e+00 1.4286026700000001e+01
-1.2510269999999999e+00 1.4286026700000001e+01
ITEM: ATOMS xu yu zu fx fy fz
7.72735 11.0963 16.0162 -0.246285 6.15361 0.83301
ITEM: TIMESTEP
5515