LAMMPS data file generated by OpenBabel
375 atoms
250 bonds
125 angles
0 dihedrals
0 impropers
2 atom types
1 bond types
1 angle types
0 dihedral types
0 improper types
  -1.251027  14.2860267 xlo xhi
  -1.251027  14.2860267 ylo yhi
  -1.251027  14.2860267 zlo zhi



Masses

1 1.00794 # H
2 15.9994 # O


Atoms

1       1    2   -0.82000    7.18300    9.78900   12.99600 #   O
2       1    1    0.41000    7.63100   10.19600   12.20000 #   H
3       1    1    0.41000    6.21300   10.03500   12.99500 #   H
4       2    2   -0.82000    1.56900    3.06700    0.57300 #   O
5       2    1    0.41000    1.66900    3.88300    0.00500 #   H
6       2    1    0.41000    1.65600    2.25100    0.00100 #   H
7       3    2   -0.82000    1.97200    5.59200    7.42700 #   O
8       3    1    0.41000    2.19900    6.15300    8.22300 #   H
9       3    1    0.41000    2.52400    4.75700    7.44000 #   H
10      4    2   -0.82000    3.04100    8.10700    7.44000 #   O
11      4    1    0.41000    3.73000    7.71700    8.05100 #   H
12      4    1    0.41000    2.22000    8.33300    7.96500 #   H
13      5    2   -0.82000   11.59100    9.10100   11.46300 #   O
14      5    1    0.41000   11.22700    8.19000   11.27300 #   H
15      5    1    0.41000   11.68300    9.22500   12.45100 #   H
16      6    2   -0.82000   11.92700    8.69500    4.88600 #   O
17      6    1    0.41000   12.22400    7.76200    4.68300 #   H
18      6    1    0.41000   11.47300    8.71300    5.77700 #   H
19      7    2   -0.82000    7.37600    9.97500    5.27500 #   O
20      7    1    0.41000    6.41300   10.22200    5.17300 #   H
21      7    1    0.41000    7.87600   10.74200    5.67600 #   H
22      8    2   -0.82000    8.43500    0.97700   10.51600 #   O
23      8    1    0.41000    8.95600    0.68000    9.71600 #   H
24      8    1    0.41000    8.50800    1.96900   10.61100 #   H
25      9    2   -0.82000    5.51300   11.78500   11.34000 #   O
26      9    1    0.41000    5.90500   12.06500   12.21600 #   H
27      9    1    0.41000    4.55000   12.05200   11.30500 #   H
28     10    2   -0.82000    3.26300    4.07200   12.58200 #   O
29     10    1    0.41000    3.72200    4.91400   12.29800 #   H
30     10    1    0.41000    2.38500    3.99500   12.11000 #   H
31     11    2   -0.82000   11.78400    2.23200    6.20000 #   O
32     11    1    0.41000   11.17800    2.11500    6.98600 #   H
33     11    1    0.41000   12.25300    3.11300    6.26900 #   H
34     12    2   -0.82000   13.00000    0.96400    1.92900 #   O
35     12    1    0.41000   12.96700    1.01500    0.93100 #   H
36     12    1    0.41000   12.98400    0.00600    2.21500 #   H
37     13    2   -0.82000    0.62700   12.15700   12.52900 #   O
38     13    1    0.41000    0.57100   13.00200   11.99800 #   H
39     13    1    0.41000    0.34500   11.38600   11.95700 #   H
40     14    2   -0.82000    8.56300    4.16300   12.77800 #   O
41     14    1    0.41000    8.11600    3.79200   11.96400 #   H
42     14    1    0.41000    9.32600    3.57100   13.03700 #   H
43     15    2   -0.82000    8.95500    8.15500   12.94900 #   O
44     15    1    0.41000    9.52600    8.95800   12.78200 #   H
45     15    1    0.41000    8.28600    8.06300   12.21200 #   H
46     16    2   -0.82000    8.53200   10.04500    7.65200 #   O
47     16    1    0.41000    9.50900   10.03000    7.86300 #   H
48     16    1    0.41000    8.02300    9.61900    8.40100 #   H
49     17    2   -0.82000    2.04900   10.59200    0.83500 #   O
50     17    1    0.41000    2.28400   10.60000    1.80700 #   H
51     17    1    0.41000    2.85000   10.32300    0.30000 #   H
52     18    2   -0.82000    3.09400    0.17300    4.58700 #   O
53     18    1    0.41000    4.06100   -0.01200    4.41400 #   H
54     18    1    0.41000    2.93800    1.16100    4.58500 #   H
55     19    2   -0.82000   -0.02200    7.10000   10.00600 #   O
56     19    1    0.41000    0.01200    6.98900   10.99900 #   H
57     19    1    0.41000    0.00600    8.07300    9.77800 #   H
58     20    2   -0.82000    7.97300   12.50500    4.12400 #   O
59     20    1    0.41000    7.93200   12.99700    4.99400 #   H
60     20    1    0.41000    8.56800   12.99900    3.49000 #   H
61     21    2   -0.82000    0.16800    0.18000    9.00800 #   O
62     21    1    0.41000    1.15100   -0.00200    8.97400 #   H
63     21    1    0.41000    0.01000    1.07700    9.42000 #   H
64     22    2   -0.82000    1.14300   10.10300    8.95200 #   O
65     22    1    0.41000    1.45400    9.72700    9.82400 #   H
66     22    1    0.41000    0.14400   10.08900    8.92000 #   H
67     23    2   -0.82000    8.14800   12.18200    7.31600 #   O
68     23    1    0.41000    8.20000   12.11500    8.31300 #   H
69     23    1    0.41000    7.27800   12.60100    7.05600 #   H
70     24    2   -0.82000   -0.00600    1.82400    4.68000 #   O
71     24    1    0.41000    0.37300    2.54100    5.26300 #   H
72     24    1    0.41000    0.63600    1.62200    3.94000 #   H
73     25    2   -0.82000    6.15000   12.05000    1.93700 #   O
74     25    1    0.41000    7.12500   12.01500    2.15500 #   H
75     25    1    0.41000    5.81300   12.98200    2.06900 #   H
76     26    2   -0.82000    3.85600    1.02800   12.35400 #   O
77     26    1    0.41000    3.97200    2.01600   12.25400 #   H
78     26    1    0.41000    3.10800    0.84400   12.99100 #   H
79     27    2   -0.82000    6.67000   -0.03300   11.34800 #   O
80     27    1    0.41000    5.75400    0.12800   11.71400 #   H
81     27    1    0.41000    7.33200   -0.04300   12.09800 #   H
82     28    2   -0.82000    9.19900    6.09800   11.93200 #   O
83     28    1    0.41000    9.84900    6.48200   11.27600 #   H
84     28    1    0.41000    8.32900    5.91800   11.47300 #   H
85     29    2   -0.82000    5.66400    4.45600    3.98800 #   O
86     29    1    0.41000    6.13000    4.65400    3.12600 #   H
87     29    1    0.41000    4.85600    5.03900    4.07200 #   H
88     30    2   -0.82000    4.31000    7.01600    0.55800 #   O
89     30    1    0.41000    5.04500    6.62900    0.00200 #   H
90     30    1    0.41000    3.49200    7.13300   -0.00600 #   H
91     31    2   -0.82000    9.35400   11.80100    0.80900 #   O
92     31    1    0.41000    9.39500   11.12000    0.07800 #   H
93     31    1    0.41000    9.21700   11.34100    1.68600 #   H
94     32    2   -0.82000    0.52700    5.59700    1.19100 #   O
95     32    1    0.41000   -0.00300    6.25900    1.72000 #   H
96     32    1    0.41000   -0.00100    4.75400    1.08800 #   H
97     33    2   -0.82000   10.25900    7.86200    7.39800 #   O
98     33    1    0.41000   10.95800    7.15700    7.28200 #   H
99     33    1    0.41000   10.04100    7.95900    8.37000 #   H
100    34    2   -0.82000    6.23400    9.25400    0.47300 #   O
101    34    1    0.41000    6.36700    8.38200    0.00200 #   H
102    34    1    0.41000    5.26700    9.50500    0.44200 #   H
103    35    2   -0.82000   11.49000   12.99500    1.02000 #   O
104    35    1    0.41000   12.45100   13.00000    1.29800 #   H
105    35    1    0.41000   11.42400   12.73200    0.05800 #   H
106    36    2   -0.82000    0.86200    8.76200    1.36500 #   O
107    36    1    0.41000    1.68800    8.42400    0.91300 #   H
108    36    1    0.41000    1.03900    8.87400    2.34200 #   H
109    37    2   -0.82000   11.46900   11.88100    2.91600 #   O
110    37    1    0.41000   11.06800   11.02600    3.24400 #   H
111    37    1    0.41000   12.35800   12.02100    3.35200 #   H
112    38    2   -0.82000    3.91100    9.02300   11.55300 #   O
113    38    1    0.41000    4.74500    8.76900   11.06300 #   H
114    38    1    0.41000    3.76100   10.00800   11.46800 #   H
115    39    2   -0.82000    2.14400   11.05500    6.26800 #   O
116    39    1    0.41000    2.05200   10.20500    6.78600 #   H
117    39    1    0.41000    2.10500   11.83300    6.89500 #   H
118    40    2   -0.82000    2.59200   12.22400    4.46000 #   O
119    40    1    0.41000    3.01400   13.00100    3.99400 #   H
120    40    1    0.41000    2.23500   11.58200    3.78000 #   H
121    41    2   -0.82000    6.80900    0.18300    9.18200 #   O
122    41    1    0.41000    5.96800    0.67100    8.94800 #   H
123    41    1    0.41000    7.33100   -0.00100    8.34900 #   H
124    42    2   -0.82000    9.33600    9.10600   10.58900 #   O
125    42    1    0.41000    9.09600   10.02900   10.28900 #   H
126    42    1    0.41000    8.77300    8.44000   10.10000 #   H
127    43    2   -0.82000    0.63500    5.25200   12.57400 #   O
128    43    1    0.41000    0.40900    4.37400   12.99700 #   H
129    43    1    0.41000    0.08300    5.97400   12.99100 #   H
130    44    2   -0.82000   10.29600    3.60400    4.35800 #   O
131    44    1    0.41000   10.34000    2.60500    4.36600 #   H
132    44    1    0.41000    9.82800    3.91000    3.52900 #   H
133    45    2   -0.82000    2.06900    6.54300   10.37800 #   O
134    45    1    0.41000    2.75300    6.48800   11.10600 #   H
135    45    1    0.41000    1.61500    5.65800   10.28000 #   H
136    46    2   -0.82000    9.63100    8.70200    2.93700 #   O
137    46    1    0.41000    9.96700    9.19400    3.74000 #   H
138    46    1    0.41000    8.90000    8.07700    3.21100 #   H
139    47    2   -0.82000    8.30200    2.44500    7.83900 #   O
140    47    1    0.41000    8.96400    1.69800    7.77700 #   H
141    47    1    0.41000    7.67900    2.27500    8.60200 #   H
142    48    2   -0.82000    3.68900    4.26500    9.83300 #   O
143    48    1    0.41000    3.66800    5.22600    9.55700 #   H
144    48    1    0.41000    2.77400    3.87300    9.74100 #   H
145    49    2   -0.82000    3.74000   12.24700    1.86600 #   O
146    49    1    0.41000    4.09200   11.67700    2.60800 #   H
147    49    1    0.41000    4.16000   11.96800    1.00300 #   H
148    50    2   -0.82000   11.32000    3.21000    9.14100 #   O
149    50    1    0.41000   10.52600    2.61500    9.02000 #   H
150    50    1    0.41000   11.02300    4.16500    9.15100 #   H
151    51    2   -0.82000    3.59300    9.97100    8.46500 #   O
152    51    1    0.41000    3.14700   10.85900    8.56900 #   H
153    51    1    0.41000    3.58700    9.49000    9.34200 #   H
154    52    2   -0.82000   10.34700    4.18100    6.49300 #   O
155    52    1    0.41000   10.79300    5.06400    6.63600 #   H
156    52    1    0.41000    9.83600    3.92900    7.31600 #   H
157    53    2   -0.82000    7.11400    2.81800    0.80500 #   O
158    53    1    0.41000    6.93900    3.38500    0.00000 #   H
159    53    1    0.41000    7.55500    3.37000    1.51200 #   H
160    54    2   -0.82000    4.00100    8.98800    4.52900 #   O
161    54    1    0.41000    3.59800    8.74800    5.41200 #   H
162    54    1    0.41000    3.43500    9.68100    4.08200 #   H
163    55    2   -0.82000    8.65500    1.27700    0.12400 #   O
164    55    1    0.41000    9.14100    1.99100    0.62800 #   H
165    55    1    0.41000    9.15200    0.41400    0.20800 #   H
166    56    2   -0.82000   12.27200    2.11500   10.92100 #   O
167    56    1    0.41000   13.00200    1.45600   10.74200 #   H
168    56    1    0.41000   11.39200    1.64100   10.94300 #   H
169    57    2   -0.82000    8.81800    8.32500    5.39400 #   O
170    57    1    0.41000    9.30700    9.07800    5.83400 #   H
171    57    1    0.41000    8.50100    7.68100    6.09000 #   H
172    58    2   -0.82000    4.30700    2.84200    4.93000 #   O
173    58    1    0.41000    4.21500    2.82400    3.93500 #   H
174    58    1    0.41000    4.84000    2.05100    5.23000 #   H
175    59    2   -0.82000    2.26700    6.17900    3.09400 #   O
176    59    1    0.41000    1.56200    6.88700    3.12600 #   H
177    59    1    0.41000    1.84100    5.29200    2.91700 #   H
178    60    2   -0.82000   10.48000    1.10200    2.41900 #   O
179    60    1    0.41000   10.84700    0.92200    1.50700 #   H
180    60    1    0.41000   11.14900    0.82400    3.10900 #   H
181    61    2   -0.82000   12.14700   10.80700    5.81000 #   O
182    61    1    0.41000   11.54400   10.74700    6.60600 #   H
183    61    1    0.41000   12.23300   11.76200    5.52900 #   H
184    62    2   -0.82000    0.94800    9.27300   12.52300 #   O
185    62    1    0.41000    0.37200    9.02500   11.74400 #   H
186    62    1    0.41000    1.78200    8.72200   12.51000 #   H
187    63    2   -0.82000    6.11000    2.28500   12.69300 #   O
188    63    1    0.41000    6.76000    2.06100   11.96800 #   H
189    63    1    0.41000    6.34900    3.17000   13.09300 #   H
190    64    2   -0.82000   10.06600   13.00100    5.52600 #   O
191    64    1    0.41000   10.33300   12.49900    4.70300 #   H
192    64    1    0.41000   10.11600   12.39300    6.31800 #   H
193    65    2   -0.82000    1.92300   12.36700   10.38300 #   O
194    65    1    0.41000    1.45400   12.20500    9.51500 #   H
195    65    1    0.41000    2.38400   11.52900   10.67500 #   H
196    66    2   -0.82000   11.78400   12.97500   10.55800 #   O
197    66    1    0.41000   12.68300   12.71600   10.91000 #   H
198    66    1    0.41000   11.07600   12.47000   11.05000 #   H
199    67    2   -0.82000    3.59400    4.75800    1.70500 #   O
200    67    1    0.41000    4.39600    5.30600    1.94000 #   H
201    67    1    0.41000    3.05900    5.23300    1.00600 #   H
202    68    2   -0.82000    4.30200   12.98400    9.32900 #   O
203    68    1    0.41000    5.01700   12.95000    8.63100 #   H
204    68    1    0.41000    3.40500   13.00000    8.88600 #   H
205    69    2   -0.82000    6.35400    6.42100   10.50200 #   O
206    69    1    0.41000    5.35900    6.33000   10.47700 #   H
207    69    1    0.41000    6.60300    7.21500   11.05700 #   H
208    70    2   -0.82000    8.19100    3.24500    4.83300 #   O
209    70    1    0.41000    7.59600    4.03800    4.95600 #   H
210    70    1    0.41000    8.65100    3.03600    5.69700 #   H
211    71    2   -0.82000    0.58600    5.44300    5.73600 #   O
212    71    1    0.41000    0.00900    5.47000    4.91900 #   H
213    71    1    0.41000    0.51900    4.54100    6.16100 #   H
214    72    2   -0.82000   12.10200    7.13600   12.99300 #   O
215    72    1    0.41000   11.63500    6.37300   12.54700 #   H
216    72    1    0.41000   12.99500    7.27700   12.56400 #   H
217    73    2   -0.82000    9.64500    1.06300   12.35100 #   O
218    73    1    0.41000    8.81000    1.45500   12.73700 #   H
219    73    1    0.41000   10.02800    0.39800   12.99200 #   H
220    74    2   -0.82000   12.41400   10.86600    0.77100 #   O
221    74    1    0.41000   13.00100   10.62200   -0.00100 #   H
222    74    1    0.41000   11.47200   10.59300    0.57200 #   H
223    75    2   -0.82000    1.33800    1.93300    7.76800 #   O
224    75    1    0.41000    1.85500    1.62000    6.97100 #   H
225    75    1    0.41000    1.35100    2.93200    7.80100 #   H
226    76    2   -0.82000   11.95800    7.31500    9.23600 #   O
227    76    1    0.41000   12.74500    7.53700    9.81000 #   H
228    76    1    0.41000   11.37600    6.65300    9.70900 #   H
229    77    2   -0.82000    4.75400    3.48400    0.22300 #   O
230    77    1    0.41000    4.93600    4.44000   -0.00500 #   H
231    77    1    0.41000    3.78300    3.28900    0.08600 #   H
232    78    2   -0.82000    5.26100    3.73200   11.26900 #   O
233    78    1    0.41000    5.43100    3.11500   10.50100 #   H
234    78    1    0.41000    5.99100    4.41400   11.31600 #   H
235    79    2   -0.82000    6.35300   10.15600   10.12300 #   O
236    79    1    0.41000    7.07300   10.83400    9.97400 #   H
237    79    1    0.41000    6.76600    9.28600   10.39500 #   H
238    80    2   -0.82000    3.22700    1.55400    2.44100 #   O
239    80    1    0.41000    3.99000    1.94800    1.92900 #   H
240    80    1    0.41000    3.30400    0.55700    2.43900 #   H
241    81    2   -0.82000    4.74600    7.66800   13.06100 #   O
242    81    1    0.41000    4.47000    7.01800   12.35400 #   H
243    81    1    0.41000    5.70000    7.93200   12.91600 #   H
244    82    2   -0.82000   13.00700    7.57700    0.51500 #   O
245    82    1    0.41000   12.63600    6.80400    0.00100 #   H
246    82    1    0.41000   12.86500    8.42000   -0.00300 #   H
247    83    2   -0.82000    7.41900   12.49900    0.03000 #   O
248    83    1    0.41000    7.23600   11.51700    0.00300 #   H
249    83    1    0.41000    6.55400   13.00000   -0.00300 #   H
250    84    2   -0.82000    4.67400    0.42000   -0.03900 #   O
251    84    1    0.41000    5.07500    1.32100    0.12500 #   H
252    84    1    0.41000    3.72800    0.41200    0.28800 #   H
253    85    2   -0.82000   10.66300   12.90700    8.45900 #   O
254    85    1    0.41000   10.88300   11.94100    8.32700 #   H
255    85    1    0.41000   10.00200   12.99900    9.20400 #   H
256    86    2   -0.82000    4.25600    5.89300    6.70600 #   O
257    86    1    0.41000    4.59900    5.74200    7.63200 #   H
258    86    1    0.41000    4.30800    5.03900    6.18800 #   H
259    87    2   -0.82000    6.43300    6.05900    6.47000 #   O
260    87    1    0.41000    6.19100    6.03300    5.50000 #   H
261    87    1    0.41000    7.40300    5.84100    6.57700 #   H
262    88    2   -0.82000    5.44700   11.34400    7.19900 #   O
263    88    1    0.41000    5.56400   10.85400    8.06300 #   H
264    88    1    0.41000    4.58500   11.06900    6.77400 #   H
265    89    2   -0.82000   13.02000    5.88600    6.05000 #   O
266    89    1    0.41000   12.42100    5.65800    5.28400 #   H
267    89    1    0.41000   12.98700    5.15200    6.72900 #   H
268    90    2   -0.82000    6.96000    1.24000    6.57000 #   O
269    90    1    0.41000    7.02000    1.56700    5.62700 #   H
270    90    1    0.41000    6.22800    1.72700    7.04500 #   H
271    91    2   -0.82000    5.58000    3.78400    7.46100 #   O
272    91    1    0.41000    5.82500    3.43500    8.36500 #   H
273    91    1    0.41000    6.40900    3.91100    6.91700 #   H
274    92    2   -0.82000    2.16700    3.85400    4.87500 #   O
275    92    1    0.41000    2.33200    3.37100    5.73400 #   H
276    92    1    0.41000    2.51000    4.79100    4.94800 #   H
277    93    2   -0.82000    3.84600    8.68200    1.91100 #   O
278    93    1    0.41000    4.67800    8.82200    2.44800 #   H
279    93    1    0.41000    3.31100    7.94000    2.31500 #   H
280    94    2   -0.82000   10.87000    3.70600   11.48600 #   O
281    94    1    0.41000   10.05000    3.43600   10.98200 #   H
282    94    1    0.41000   11.08200    4.66300   11.28800 #   H
283    95    2   -0.82000    9.95800    5.74400    4.71800 #   O
284    95    1    0.41000    9.14200    5.56500    5.26600 #   H
285    95    1    0.41000   10.42400    6.55700    5.06800 #   H
286    96    2   -0.82000    6.58000    7.96300    8.51700 #   O
287    96    1    0.41000    7.30300    7.59800    7.93100 #   H
288    96    1    0.41000    5.82500    7.30800    8.56200 #   H
289    97    2   -0.82000    7.21400    9.60200    3.09500 #   O
290    97    1    0.41000    6.36900   10.12400    2.97700 #   H
291    97    1    0.41000    7.82300    9.77600    2.32100 #   H
292    98    2   -0.82000   -0.00100    4.38400    8.73800 #   O
293    98    1    0.41000    0.01600    4.25200    9.72900 #   H
294    98    1    0.41000    0.01800    5.36300    8.53300 #   H
295    99    2   -0.82000    7.79900    6.06600    2.93700 #   O
296    99    1    0.41000    7.66000    6.38600    3.87400 #   H
297    99    1    0.41000    8.71700    5.68100    2.85000 #   H
298   100    2   -0.82000    9.72800    0.15100    6.18800 #   O
299   100    1    0.41000    9.78300    0.73400    5.37900 #   H
300   100    1    0.41000    8.76900    0.00100    6.42700 #   H
301   101    2   -0.82000   12.49300    0.00100    6.12200 #   O
302   101    1    0.41000   12.99700    0.50800    6.82100 #   H
303   101    1    0.41000   12.78500    0.30400    5.21500 #   H
304   102    2   -0.82000    9.41700    5.84800    8.81100 #   O
305   102    1    0.41000    9.19600    5.96600    7.84300 #   H
306   102    1    0.41000    8.76800    6.36800    9.36700 #   H
307   103    2   -0.82000    0.86800    2.09800   11.63900 #   O
308   103    1    0.41000    0.84300    1.09900   11.65400 #   H
309   103    1    0.41000    0.00500    2.45800   11.99400 #   H
310   104    2   -0.82000    9.53800   12.12000   12.78400 #   O
311   104    1    0.41000    9.05500   11.85300   11.95100 #   H
312   104    1    0.41000   10.34400   11.54000   12.90200 #   H
313   105    2   -0.82000    3.91100    2.38800    8.58300 #   O
314   105    1    0.41000    3.69200    2.63000    7.63800 #   H
315   105    1    0.41000    3.91100    1.39200    8.68000 #   H
316   106    2   -0.82000    0.76400    3.35000    2.59500 #   O
317   106    1    0.41000    0.36700    3.74300    3.42400 #   H
318   106    1    0.41000    1.72300    3.12000    2.76200 #   H
319   107    2   -0.82000    6.51100    0.57700    1.60400 #   O
320   107    1    0.41000    5.74300   -0.02300    1.83100 #   H
321   107    1    0.41000    7.28500    0.02400    1.29600 #   H
322   108    2   -0.82000    4.49600    0.08600    6.97300 #   O
323   108    1    0.41000    3.79400    0.69200    6.60200 #   H
324   108    1    0.41000    5.20900   -0.05800    6.28700 #   H
325   109    2   -0.82000   11.67200    0.32800    8.58300 #   O
326   109    1    0.41000   10.70600    0.51200    8.40200 #   H
327   109    1    0.41000   12.15400    1.19100    8.72900 #   H
328   110    2   -0.82000   12.11900   10.54600    9.89200 #   O
329   110    1    0.41000   12.64700   10.88600    9.11400 #   H
330   110    1    0.41000   11.25500   10.16300    9.56700 #   H
331   111    2   -0.82000    5.46700    8.08000    6.55500 #   O
332   111    1    0.41000    5.16300    8.95400    6.93200 #   H
333   111    1    0.41000    6.32600    8.21100    6.06000 #   H
334   112    2   -0.82000    7.65600    4.53800    8.87500 #   O
335   112    1    0.41000    7.53400    4.12400    9.77600 #   H
336   112    1    0.41000    6.98000    5.26300    8.74600 #   H
337   113    2   -0.82000    2.72500    1.47700   10.52800 #   O
338   113    1    0.41000    2.08200    1.79400    9.83100 #   H
339   113    1    0.41000    2.83500    0.48600   10.45400 #   H
340   114    2   -0.82000    8.22100    1.24700    2.86500 #   O
341   114    1    0.41000    8.63600    2.14800    2.98400 #   H
342   114    1    0.41000    8.63600    0.60100    3.50600 #   H
343   115    2   -0.82000   11.12200    8.55800    1.32800 #   O
344   115    1    0.41000   10.83500    7.88300    0.64800 #   H
345   115    1    0.41000   11.56500    8.09100    2.09400 #   H
346   116    2   -0.82000    5.61700   12.25900    4.95600 #   O
347   116    1    0.41000    4.73900   11.84200    4.72200 #   H
348   116    1    0.41000    5.46900   13.00600    5.60300 #   H
349   117    2   -0.82000   13.00100    8.70300    7.75500 #   O
350   117    1    0.41000   13.00900    7.92600    7.12600 #   H
351   117    1    0.41000   12.06200    9.02700    7.87100 #   H
352   118    2   -0.82000   13.00600    5.22300   10.06900 #   O
353   118    1    0.41000   12.94600    4.23400   10.20200 #   H
354   118    1    0.41000   12.99600    5.68000   10.95800 #   H
355   119    2   -0.82000   10.28200    3.95000    1.37000 #   O
356   119    1    0.41000   10.66400    4.83300    1.64400 #   H
357   119    1    0.41000   11.02400    3.33200    1.11100 #   H
358   120    2   -0.82000    6.32100    2.05400    3.60900 #   O
359   120    1    0.41000    6.00100    2.39600    2.72600 #   H
360   120    1    0.41000    6.08000    1.08800    3.69900 #   H
361   121    2   -0.82000    1.87000    7.40800    5.23800 #   O
362   121    1    0.41000    1.51300    8.10500    5.86000 #   H
363   121    1    0.41000    2.54000    6.84300    5.72000 #   H
364   122    2   -0.82000   12.37600    3.17700    3.79300 #   O
365   122    1    0.41000   12.49900    2.24200    4.12600 #   H
366   122    1    0.41000   13.00000    3.78800    4.28000 #   H
367   123    2   -0.82000    5.58300    7.06800    3.64400 #   O
368   123    1    0.41000    5.76600    6.85500    2.68500 #   H
369   123    1    0.41000    6.07000    7.90400    3.89800 #   H
370   124    2   -0.82000    7.17200    5.50900    0.90600 #   O
371   124    1    0.41000    7.98400    5.28600    0.36700 #   H
372   124    1    0.41000    7.04100    6.50100    0.91500 #   H
373   125    2   -0.82000    0.17900   -0.00500    5.86200 #   O
374   125    1    0.41000    1.11400    0.13700    5.53700 #   H
375   125    1    0.41000    0.11000    0.29000    6.81500 #   H


Bonds

1       1    1    2 #  O: H
2       1    1    3 #  O: H
3       1    4    5 #  O: H
4       1    4    6 #  O: H
5       1    7    8 #  O: H
6       1    7    9 #  O: H
7       1   10   11 #  O: H
8       1   10   12 #  O: H
9       1   13   14 #  O: H
10      1   13   15 #  O: H
11      1   16   17 #  O: H
12      1   16   18 #  O: H
13      1   19   20 #  O: H
14      1   19   21 #  O: H
15      1   22   23 #  O: H
16      1   22   24 #  O: H
17      1   25   26 #  O: H
18      1   25   27 #  O: H
19      1   28   29 #  O: H
20      1   28   30 #  O: H
21      1   31   32 #  O: H
22      1   31   33 #  O: H
23      1   34   35 #  O: H
24      1   34   36 #  O: H
25      1   37   38 #  O: H
26      1   37   39 #  O: H
27      1   40   41 #  O: H
28      1   40   42 #  O: H
29      1   43   44 #  O: H
30      1   43   45 #  O: H
31      1   46   47 #  O: H
32      1   46   48 #  O: H
33      1   49   50 #  O: H
34      1   49   51 #  O: H
35      1   52   53 #  O: H
36      1   52   54 #  O: H
37      1   55   56 #  O: H
38      1   55   57 #  O: H
39      1   58   59 #  O: H
40      1   58   60 #  O: H
41      1   61   62 #  O: H
42      1   61   63 #  O: H
43      1   64   65 #  O: H
44      1   64   66 #  O: H
45      1   67   68 #  O: H
46      1   67   69 #  O: H
47      1   70   71 #  O: H
48      1   70   72 #  O: H
49      1   73   74 #  O: H
50      1   73   75 #  O: H
51      1   76   77 #  O: H
52      1   76   78 #  O: H
53      1   79   80 #  O: H
54      1   79   81 #  O: H
55      1   82   83 #  O: H
56      1   82   84 #  O: H
57      1   85   86 #  O: H
58      1   85   87 #  O: H
59      1   88   89 #  O: H
60      1   88   90 #  O: H
61      1   91   92 #  O: H
62      1   91   93 #  O: H
63      1   94   95 #  O: H
64      1   94   96 #  O: H
65      1   97   98 #  O: H
66      1   97   99 #  O: H
67      1  100  101 #  O: H
68      1  100  102 #  O: H
69      1  103  104 #  O: H
70      1  103  105 #  O: H
71      1  106  107 #  O: H
72      1  106  108 #  O: H
73      1  109  110 #  O: H
74      1  109  111 #  O: H
75      1  112  113 #  O: H
76      1  112  114 #  O: H
77      1  115  116 #  O: H
78      1  115  117 #  O: H
79      1  118  119 #  O: H
80      1  118  120 #  O: H
81      1  121  122 #  O: H
82      1  121  123 #  O: H
83      1  124  125 #  O: H
84      1  124  126 #  O: H
85      1  127  128 #  O: H
86      1  127  129 #  O: H
87      1  130  131 #  O: H
88      1  130  132 #  O: H
89      1  133  134 #  O: H
90      1  133  135 #  O: H
91      1  136  137 #  O: H
92      1  136  138 #  O: H
93      1  139  140 #  O: H
94      1  139  141 #  O: H
95      1  142  143 #  O: H
96      1  142  144 #  O: H
97      1  145  146 #  O: H
98      1  145  147 #  O: H
99      1  148  149 #  O: H
100     1  148  150 #  O: H
101     1  151  152 #  O: H
102     1  151  153 #  O: H
103     1  154  155 #  O: H
104     1  154  156 #  O: H
105     1  157  158 #  O: H
106     1  157  159 #  O: H
107     1  160  161 #  O: H
108     1  160  162 #  O: H
109     1  163  164 #  O: H
110     1  163  165 #  O: H
111     1  166  167 #  O: H
112     1  166  168 #  O: H
113     1  169  170 #  O: H
114     1  169  171 #  O: H
115     1  172  173 #  O: H
116     1  172  174 #  O: H
117     1  175  176 #  O: H
118     1  175  177 #  O: H
119     1  178  179 #  O: H
120     1  178  180 #  O: H
121     1  181  182 #  O: H
122     1  181  183 #  O: H
123     1  184  185 #  O: H
124     1  184  186 #  O: H
125     1  187  188 #  O: H
126     1  187  189 #  O: H
127     1  190  191 #  O: H
128     1  190  192 #  O: H
129     1  193  194 #  O: H
130     1  193  195 #  O: H
131     1  196  197 #  O: H
132     1  196  198 #  O: H
133     1  199  200 #  O: H
134     1  199  201 #  O: H
135     1  202  203 #  O: H
136     1  202  204 #  O: H
137     1  205  206 #  O: H
138     1  205  207 #  O: H
139     1  208  209 #  O: H
140     1  208  210 #  O: H
141     1  211  212 #  O: H
142     1  211  213 #  O: H
143     1  214  215 #  O: H
144     1  214  216 #  O: H
145     1  217  218 #  O: H
146     1  217  219 #  O: H
147     1  220  221 #  O: H
148     1  220  222 #  O: H
149     1  223  224 #  O: H
150     1  223  225 #  O: H
151     1  226  227 #  O: H
152     1  226  228 #  O: H
153     1  229  230 #  O: H
154     1  229  231 #  O: H
155     1  232  233 #  O: H
156     1  232  234 #  O: H
157     1  235  236 #  O: H
158     1  235  237 #  O: H
159     1  238  239 #  O: H
160     1  238  240 #  O: H
161     1  241  242 #  O: H
162     1  241  243 #  O: H
163     1  244  245 #  O: H
164     1  244  246 #  O: H
165     1  247  248 #  O: H
166     1  247  249 #  O: H
167     1  250  251 #  O: H
168     1  250  252 #  O: H
169     1  253  254 #  O: H
170     1  253  255 #  O: H
171     1  256  257 #  O: H
172     1  256  258 #  O: H
173     1  259  260 #  O: H
174     1  259  261 #  O: H
175     1  262  263 #  O: H
176     1  262  264 #  O: H
177     1  265  266 #  O: H
178     1  265  267 #  O: H
179     1  268  269 #  O: H
180     1  268  270 #  O: H
181     1  271  272 #  O: H
182     1  271  273 #  O: H
183     1  274  275 #  O: H
184     1  274  276 #  O: H
185     1  277  278 #  O: H
186     1  277  279 #  O: H
187     1  280  281 #  O: H
188     1  280  282 #  O: H
189     1  283  284 #  O: H